LAMMPS Description

       560 atoms
       510 bonds
       880 angles
       930 dihedrals
       560 impropers

         6 atom types
         8 bond types
        13 angle types
        11 dihedral types
        10 improper types

# Cell: 18.270999 18.270999 18.270999 90.0000 90.0000 90.0000
    0.000000    18.270999 xlo xhi
    0.000000    18.270999 ylo yhi
    0.000000    18.270999 zlo zhi

Masses

         1 12.01115	# c2
         2 12.01115	# c3
         3 12.01115	# c4o
         4 1.00797	# hc
         5 1.00797	# ho
         6 15.99940	# oh

Bond Coeffs

         1 1.53 299.67 -501.77 679.81	# c	c
         2 1.53 299.67 -501.77 679.81	# c	c
         3 1.101 345 -691.89 844.6	# c	h
         4 1.101 345 -691.89 844.6	# c	h
         5 1.53 299.67 -501.77 679.81	# c	c
         6 1.42 400.4 -835.2 1313	# c	o
         7 1.101 345 -691.89 844.6	# c	h
         8 0.965 532.51 -1282.9 2004.8	# h*	o

Angle Coeffs

         1 112.67 39.516 -7.443 -9.5583	# c	c	c
         2 110.77 41.453 -10.604 5.129	# c	c	h
         3 107.66 39.641 -12.921 -2.4318	# h	c	h
         4 112.67 39.516 -7.443 -9.5583	# c	c	c
         5 110.77 41.453 -10.604 5.129	# c	c	h
         6 110.77 41.453 -10.604 5.129	# c	c	h
         7 107.66 39.641 -12.921 -2.4318	# h	c	h
         8 110.77 41.453 -10.604 5.129	# c	c	h
         9 111.27 54.538 -8.3642 -13.084	# c	c	o
        10 110.77 41.453 -10.604 5.129	# c	c	h
        11 108.73 58.545 -10.809 -12.401	# h	c	o
        12 107.66 39.641 -12.921 -2.4318	# h	c	h
        13 105.8 52.706 -12.109 -9.8681	# c	o	h*

Dihedral Coeffs

         1 0 0 0.0514 0 -0.143 0	# c	c	c	c
         2 0 0 0.0316 0 -0.1681 0	# c	c	c	h
         3 -0.1432 0 0.0617 0 -0.1083 0	# h	c	c	h
         4 0 0 0.0514 0 -0.143 0	# c	c	c	c
         5 0 0 0.0316 0 -0.1681 0	# c	c	c	h
         6 0 0 0.0316 0 -0.1681 0	# c	c	c	h
         7 -0.1432 0 0.0617 0 -0.1083 0	# h	c	c	h
         8 -0.1435 0 0.253 0 -0.0905 0	# h	c	c	o
         9 -0.1432 0 0.0617 0 -0.1083 0	# h	c	c	h
        10 -0.6732 0 -0.4778 0 -0.167 0	# c	c	o	h*
        11 0.1863 0 -0.4338 0 -0.2121 0	# h	c	o	h*

Improper Coeffs

         1 0.0000 0.0000	# c2	c2	c2	hc
         2 0.0000 0.0000	# c2	c2	hc	hc
         3 0.0000 0.0000	# c2	c2	c3	hc
         4 0.0000 0.0000	# c3	c2	hc	hc
         5 0.0000 0.0000	# c2	c3	hc	hc
         6 0.0000 0.0000	# hc	c3	hc	hc
         7 0.0000 0.0000	# c4o	c3	hc	hc
         8 0.0000 0.0000	# c3	c4o	hc	oh
         9 0.0000 0.0000	# c3	c4o	hc	hc
        10 0.0000 0.0000	# hc	c4o	hc	oh

BondBond Coeffs

         1 0 1.53 1.53	# c	c	c
         2 3.3872 1.53 1.101	# c	c	h
         3 5.3316 1.101 1.101	# h	c	h
         4 0 1.53 1.53	# c	c	c
         5 3.3872 1.53 1.101	# c	c	h
         6 3.3872 1.53 1.101	# c	c	h
         7 5.3316 1.101 1.101	# h	c	h
         8 3.3872 1.53 1.101	# c	c	h
         9 11.432 1.53 1.42	# c	c	o
        10 3.3872 1.53 1.101	# c	c	h
        11 23.198 1.101 1.42	# h	c	o
        12 5.3316 1.101 1.101	# h	c	h
        13 -9.6879 1.42 0.965	# c	o	h*

BondAngle Coeffs

         1 8.016 8.016 1.53 1.53	# c	c	c
         2 20.754 11.421 1.53 1.101	# c	c	h
         3 18.103 18.103 1.101 1.101	# h	c	h
         4 8.016 8.016 1.53 1.53	# c	c	c
         5 20.754 11.421 1.53 1.101	# c	c	h
         6 20.754 11.421 1.53 1.101	# c	c	h
         7 18.103 18.103 1.101 1.101	# h	c	h
         8 20.754 11.421 1.53 1.101	# c	c	h
         9 2.6868 20.403 1.53 1.42	# c	c	o
        10 20.754 11.421 1.53 1.101	# c	c	h
        11 4.6189 55.327 1.101 1.42	# h	c	o
        12 18.103 18.103 1.101 1.101	# h	c	h
        13 28.58 18.928 1.42 0.965	# c	o	h*

MiddleBondTorsion Coeffs

         1 -17.787 -7.1877 0 1.53	# c	c	c	c
         2 -14.879 -3.6581 -0.3138 1.53	# c	c	c	h
         3 -14.261 -0.5322 -0.4864 1.53	# h	c	c	h
         4 -17.787 -7.1877 0 1.53	# c	c	c	c
         5 -14.879 -3.6581 -0.3138 1.53	# c	c	c	h
         6 -14.879 -3.6581 -0.3138 1.53	# c	c	c	h
         7 -14.261 -0.5322 -0.4864 1.53	# h	c	c	h
         8 -16.797 -1.2296 -0.275 1.53	# h	c	c	o
         9 -14.261 -0.5322 -0.4864 1.53	# h	c	c	h
        10 1.2472 0 0.7485 1.42	# c	c	o	h*
        11 0 0.9241 -0.5889 1.42	# h	c	o	h*

EndBondTorsion Coeffs

         1 -0.0732 0 0 -0.0732 0 0 1.53 1.53	# c	c	c	c
         2 0.2486 0.2422 -0.0925 0.0814 0.0591 0.2219 1.53 1.101	# c	c	c	h
         3 0.213 0.312 0.0777 0.213 0.312 0.0777 1.101 1.101	# h	c	c	h
         4 -0.0732 0 0 -0.0732 0 0 1.53 1.53	# c	c	c	c
         5 0.2486 0.2422 -0.0925 0.0814 0.0591 0.2219 1.53 1.101	# c	c	c	h
         6 0.2486 0.2422 -0.0925 0.0814 0.0591 0.2219 1.53 1.101	# c	c	c	h
         7 0.213 0.312 0.0777 0.213 0.312 0.0777 1.101 1.101	# h	c	c	h
         8 0.9681 0.9551 0.0436 0.5903 0.6669 0.8584 1.101 1.42	# h	c	c	o
         9 0.213 0.312 0.0777 0.213 0.312 0.0777 1.101 1.101	# h	c	c	h
        10 -0.58 0.9004 0 0 0.5343 0.9025 1.53 0.965	# c	c	o	h*
        11 -1.7554 1.3145 0.2263 0.2493 0.6803 0 1.101 0.965	# h	c	o	h*

AngleTorsion Coeffs

         1 0.3886 -0.3139 0.1389 0.3886 -0.3139 0.1389 112.67 112.67	# c	c	c	c
         2 -0.2454 0 -0.1136 0.3113 0.4516 -0.1988 112.67 110.77	# c	c	c	h
         3 -0.8085 0.5569 -0.2466 -0.8085 0.5569 -0.2466 110.77 110.77	# h	c	c	h
         4 0.3886 -0.3139 0.1389 0.3886 -0.3139 0.1389 112.67 112.67	# c	c	c	c
         5 -0.2454 0 -0.1136 0.3113 0.4516 -0.1988 112.67 110.77	# c	c	c	h
         6 -0.2454 0 -0.1136 0.3113 0.4516 -0.1988 112.67 110.77	# c	c	c	h
         7 -0.8085 0.5569 -0.2466 -0.8085 0.5569 -0.2466 110.77 110.77	# h	c	c	h
         8 2.3668 2.492 -1.0122 -0.1892 0.4918 0.7273 110.77 111.27	# h	c	c	o
         9 -0.8085 0.5569 -0.2466 -0.8085 0.5569 -0.2466 110.77 110.77	# h	c	c	h
        10 -3.5903 2.5225 0.4888 0.8726 -0.3577 0.3888 111.27 105.8	# c	c	o	h*
        11 -3.406 1.6396 0.0737 0 -0.281 -0.5944 108.73 105.8	# h	c	o	h*

AngleAngleTorsion Coeffs

         1 0.0 112.67 112.67	# c	c	c	c
         2 0.0 112.67 110.77	# c	c	c	h
         3 0.0 110.77 110.77	# h	c	c	h
         4 0.0 112.67 112.67	# c	c	c	c
         5 0.0 112.67 110.77	# c	c	c	h
         6 0.0 112.67 110.77	# c	c	c	h
         7 0.0 110.77 110.77	# h	c	c	h
         8 0.0 110.77 111.27	# h	c	c	o
         9 0.0 110.77 110.77	# h	c	c	h
        10 0.0 111.27 105.8	# c	c	o	h*
        11 0.0 108.73 105.8	# h	c	o	h*

BondBond13 Coeffs

         1 0.0 1.53 1.53	# c	c	c	c
         2 0.0 1.53 1.101	# c	c	c	h
         3 0.0 1.101 1.101	# h	c	c	h
         4 0.0 1.53 1.53	# c	c	c	c
         5 0.0 1.53 1.101	# c	c	c	h
         6 0.0 1.53 1.101	# c	c	c	h
         7 0.0 1.101 1.101	# h	c	c	h
         8 0.0 1.101 1.42	# h	c	c	o
         9 0.0 1.101 1.101	# h	c	c	h
        10 0.0 1.53 0.965	# c	c	o	h*
        11 0.0 1.101 0.965	# h	c	o	h*

AngleAngle Coeffs

         1 -1.3199 -1.3199 0.1184 112.67 110.77 110.77	# c	c	c	h
         2 0.2738 -0.4825 0.2738 110.77 110.77 107.66	# c	c	h	h
         3 -1.3199 -1.3199 0.1184 112.67 110.77 110.77	# c	c	c	h
         4 0.2738 -0.4825 0.2738 110.77 110.77 107.66	# c	c	h	h
         5 0.2738 -0.4825 0.2738 110.77 110.77 107.66	# c	c	h	h
         6 -0.3157 -0.3157 -0.3157 107.66 107.66 107.66	# h	c	h	h
         7 0.2738 -0.4825 0.2738 110.77 110.77 107.66	# c	c	h	h
         8 3.9177 2.5926 0.1689 110.77 111.27 108.73	# c	c	h	o
         9 0.2738 -0.4825 0.2738 110.77 110.77 107.66	# c	c	h	h
        10 2.4259 2.4259 2.1283 107.66 108.73 108.73	# h	c	h	o

Atoms

1 1 1 -0.10600 13.724242 5.508389 16.142805	# C1	c2
2 1 1 -0.10600 14.168033 5.208930 17.554124	# C2	c2
3 1 1 -0.10600 15.237320 6.170374 17.982131	# C3	c2
4 1 2 -0.15900 15.130648 7.209775 0.864051	# C4	c3
5 1 1 -0.10600 12.368708 6.197988 16.282884	# C5	c2
6 1 2 -0.15900 11.242928 5.276200 15.862568	# C6	c3
7 1 4 0.05300 13.620216 4.583181 15.572205	# H1	hc
8 1 4 0.05300 14.442196 6.173044 15.654266	# H2	hc
9 1 4 0.05300 14.572813 4.192994 17.584824	# H3	hc
10 1 4 0.05300 13.317748 5.276520 18.224589	# H4	hc
11 1 4 0.05300 15.190126 5.491529 0.562397	# H5	hc
12 1 4 0.05300 14.529434 6.856350 17.514308	# H6	hc
13 1 4 0.05300 15.855487 7.879409 1.307969	# H7	hc
14 1 4 0.05300 15.770592 6.485168 1.356108	# H8	hc
15 1 4 0.05300 15.312544 7.881485 0.026020	# H9	hc
16 1 4 0.05300 12.359188 7.080883 15.640530	# H10	hc
17 1 4 0.05300 12.230527 6.509982 17.317410	# H11	hc
18 1 4 0.05300 10.579093 5.136494 16.712715	# H12	hc
19 1 4 0.05300 10.691524 5.718581 15.043206	# H13	hc
20 1 4 0.05300 11.648719 4.316796 15.561939	# H14	hc
21 2 1 -0.10600 1.587105 6.411886 0.277360	# C1	c2
22 2 1 -0.10600 1.594281 6.605082 16.997682	# C2	c2
23 2 1 -0.10600 2.968067 7.077768 16.489154	# C3	c2
24 2 2 -0.15900 3.924100 6.372601 15.467428	# C4	c3
25 2 1 -0.10600 0.407791 7.196184 0.983944	# C5	c2
26 2 2 -0.15900 17.921542 8.146045 0.024658	# C6	c3
27 2 4 0.05300 2.534473 6.788165 0.675308	# H1	hc
28 2 4 0.05300 1.506687 5.353188 0.508860	# H2	hc
29 2 4 0.05300 0.858941 7.324054 16.715835	# H3	hc
30 2 4 0.05300 1.353341 5.656002 16.526507	# H4	hc
31 2 4 0.05300 2.369776 7.182796 15.583493	# H5	hc
32 2 4 0.05300 3.269335 6.219785 17.089483	# H6	hc
33 2 4 0.05300 4.848114 6.689475 14.989642	# H7	hc
34 2 4 0.05300 3.546397 7.164633 14.822210	# H8	hc
35 2 4 0.05300 4.585931 6.404064 16.329798	# H9	hc
36 2 4 0.05300 0.790039 7.765594 1.814991	# H10	hc
37 2 4 0.05300 17.967466 6.460569 1.365732	# H11	hc
38 2 4 0.05300 16.903368 7.791988 18.177397	# H12	hc
39 2 4 0.05300 17.905971 9.151987 0.449417	# H13	hc
40 2 4 0.05300 0.118153 8.164459 17.339011	# H14	hc
41 3 1 -0.10600 13.440284 7.342778 3.039752	# C1	c2
42 3 1 -0.10600 14.226324 5.997403 3.244146	# C2	c2
43 3 1 -0.10600 13.717378 5.354661 4.580304	# C3	c2
44 3 2 -0.15900 12.933039 4.032762 4.881402	# C4	c3
45 3 1 -0.10600 14.319912 8.542664 2.941978	# C5	c2
46 3 2 -0.15900 13.882657 9.292745 1.670650	# C6	c3
47 3 4 0.05300 12.732265 7.475205 3.852174	# H1	hc
48 3 4 0.05300 12.887140 7.278206 2.087420	# H2	hc
49 3 4 0.05300 15.298780 6.197619 3.319876	# H3	hc
50 3 4 0.05300 14.035737 5.316765 2.409163	# H4	hc
51 3 4 0.05300 14.445718 4.607786 4.256601	# H5	hc
52 3 4 0.05300 12.764223 5.643297 4.165943	# H6	hc
53 3 4 0.05300 12.622712 3.556152 5.814531	# H7	hc
54 3 4 0.05300 13.902443 3.721001 5.259567	# H8	hc
55 3 4 0.05300 12.218106 4.765900 5.266192	# H9	hc
56 3 4 0.05300 15.360863 8.235478 2.851030	# H10	hc
57 3 4 0.05300 14.188937 9.170392 3.819064	# H11	hc
58 3 4 0.05300 13.520123 10.275127 1.949320	# H12	hc
59 3 4 0.05300 14.712182 9.389469 0.984238	# H13	hc
60 3 4 0.05300 13.066974 8.738565 1.189852	# H14	hc
61 4 1 -0.10600 9.679847 7.393298 16.783968	# C1	c2
62 4 1 -0.10600 9.100328 8.737029 16.279598	# C2	c2
63 4 1 -0.10600 8.379028 8.629676 14.920941	# C3	c2
64 4 2 -0.15900 6.971697 8.935636 14.365300	# C4	c3
65 4 1 -0.10600 9.278074 7.175493 18.258680	# C5	c2
66 4 2 -0.15900 9.335113 5.690967 0.358708	# C6	c3
67 4 4 0.05300 10.754390 7.381555 16.680773	# H1	hc
68 4 4 0.05300 9.245499 6.581077 16.182695	# H2	hc
69 4 4 0.05300 9.915937 9.446940 16.188970	# H3	hc
70 4 4 0.05300 8.392524 9.113772 17.020795	# H4	hc
71 4 4 0.05300 8.220578 9.658720 15.218936	# H5	hc
72 4 4 0.05300 7.915889 7.742438 15.345858	# H6	hc
73 4 4 0.05300 6.591208 8.974303 13.339895	# H7	hc
74 4 4 0.05300 7.526616 9.800579 13.971276	# H8	hc
75 4 4 0.05300 7.014739 7.878892 14.125351	# H9	hc
76 4 4 0.05300 8.250295 7.523150 0.128469	# H10	hc
77 4 4 0.05300 9.942148 7.745766 0.630986	# H11	hc
78 4 4 0.05300 10.102712 5.576274 1.114665	# H12	hc
79 4 4 0.05300 8.387056 5.357214 0.757796	# H13	hc
80 4 4 0.05300 9.611009 5.101056 17.767489	# H14	hc
81 5 1 -0.10600 6.533216 12.660712 13.550559	# C1	c2
82 5 1 -0.10600 7.070171 12.009523 12.258402	# C2	c2
83 5 1 -0.10600 8.049775 12.916855 11.538867	# C3	c2
84 5 2 -0.15900 9.547428 12.734162 11.208123	# C4	c3
85 5 1 -0.10600 6.985939 11.796250 14.731205	# C5	c2
86 5 2 -0.15900 8.521369 11.630611 14.646078	# C6	c3
87 5 4 0.05300 5.443928 12.706769 13.522173	# H1	hc
88 5 4 0.05300 6.941783 13.664936 13.654869	# H2	hc
89 5 4 0.05300 6.244217 11.829119 11.597501	# H3	hc
90 5 4 0.05300 7.553823 11.062019 12.498099	# H4	hc
91 5 4 0.05300 7.997396 12.056244 10.864582	# H5	hc
92 5 4 0.05300 8.435478 13.018035 12.549164	# H6	hc
93 5 4 0.05300 10.221496 13.319529 10.588895	# H7	hc
94 5 4 0.05300 9.128464 12.522617 10.224055	# H8	hc
95 5 4 0.05300 9.596982 13.649382 11.796939	# H9	hc
96 5 4 0.05300 6.507059 10.815919 14.669268	# H10	hc
97 5 4 0.05300 6.714592 12.275973 15.670234	# H11	hc
98 5 4 0.05300 8.975366 11.980559 15.572680	# H12	hc
99 5 4 0.05300 8.774357 10.595504 14.486238	# H13	hc
100 5 4 0.05300 8.899216 12.208863 13.808488	# H14	hc
101 6 1 -0.10600 3.057047 2.978881 6.671770	# C1	c2
102 6 1 -0.10600 4.428836 2.778567 6.063724	# C2	c2
103 6 1 -0.10600 4.376608 3.249726 4.633451	# C3	c2
104 6 2 -0.15900 5.124785 4.437774 3.996068	# C4	c3
105 6 1 -0.10600 3.178434 4.184500 7.608899	# C5	c2
106 6 2 -0.15900 2.901322 3.802567 9.054913	# C6	c3
107 6 4 0.05300 2.769470 2.092711 7.238768	# H1	hc
108 6 4 0.05300 2.323254 3.177409 5.889112	# H2	hc
109 6 4 0.05300 4.684448 1.717646 6.083572	# H3	hc
110 6 4 0.05300 5.165685 3.338612 6.621763	# H4	hc
111 6 4 0.05300 5.401832 2.885861 4.700117	# H5	hc
112 6 4 0.05300 3.833498 4.064066 5.120978	# H6	hc
113 6 4 0.05300 5.176258 4.809623 2.979432	# H7	hc
114 6 4 0.05300 5.699854 3.637769 3.550473	# H8	hc
115 6 4 0.05300 4.091252 4.742313 3.850029	# H9	hc
116 6 4 0.05300 2.464240 4.947335 7.295338	# H10	hc
117 6 4 0.05300 4.182194 4.587637 7.525685	# H11	hc
118 6 4 0.05300 3.790443 4.011296 9.651969	# H12	hc
119 6 4 0.05300 2.065436 4.392453 9.428965	# H13	hc
120 6 4 0.05300 2.664411 2.747148 9.117480	# H14	hc
121 7 1 -0.10600 5.617641 15.271252 4.410696	# C1	c2
122 7 1 -0.10600 7.138572 15.665093 4.257894	# C2	c2
123 7 1 -0.10600 7.984539 14.880397 5.312982	# C3	c2
124 7 2 -0.15900 9.119857 13.815314 5.204267	# C4	c3
125 7 1 -0.10600 4.692718 16.446546 4.847659	# C5	c2
126 7 2 -0.15900 5.444067 17.777449 5.007251	# C6	c3
127 7 4 0.05300 5.530726 14.460920 5.130332	# H1	hc
128 7 4 0.05300 5.249698 14.927402 3.448034	# H2	hc
129 7 4 0.05300 7.275079 16.715513 4.405297	# H3	hc
130 7 4 0.05300 7.482875 15.399081 3.254687	# H4	hc
131 7 4 0.05300 8.760496 15.463248 4.811245	# H5	hc
132 7 4 0.05300 7.380699 14.053928 4.950732	# H6	hc
133 7 4 0.05300 9.763592 13.355795 5.960028	# H7	hc
134 7 4 0.05300 9.730779 14.673739 5.480723	# H8	hc
135 7 4 0.05300 8.384201 13.239360 5.769367	# H9	hc
136 7 4 0.05300 4.233725 16.187247 5.800365	# H10	hc
137 7 4 0.05300 3.907996 16.569762 4.105021	# H11	hc
138 7 4 0.05300 5.016948 0.239730 4.324079	# H12	hc
139 7 4 0.05300 5.332078 18.129467 6.030146	# H13	hc
140 7 4 0.05300 6.478099 17.652121 4.787620	# H14	hc
141 8 1 -0.10600 9.158095 4.704823 3.799696	# C1	c2
142 8 1 -0.10600 10.323678 3.786672 3.389078	# C2	c2
143 8 1 -0.10600 11.456187 4.588013 2.736683	# C3	c2
144 8 2 -0.15900 11.757780 6.046670 2.452800	# C4	c3
145 8 1 -0.10600 8.729356 4.359318 5.222526	# C5	c2
146 8 2 -0.15900 8.548719 2.817314 5.309983	# C6	c3
147 8 4 0.05300 8.323867 4.522377 3.119051	# H1	hc
148 8 4 0.05300 9.453316 5.750819 3.740464	# H2	hc
149 8 4 0.05300 9.984836 3.030086 2.714086	# H3	hc
150 8 4 0.05300 10.720290 3.323599 4.299025	# H4	hc
151 8 4 0.05300 11.588050 4.940213 3.766927	# H5	hc
152 8 4 0.05300 10.649394 4.813500 2.052341	# H6	hc
153 8 4 0.05300 11.024142 6.705565 2.935125	# H7	hc
154 8 4 0.05300 12.705185 6.234985 2.841882	# H8	hc
155 8 4 0.05300 11.777437 6.217407 1.368285	# H9	hc
156 8 4 0.05300 7.797777 4.857763 5.461620	# H10	hc
157 8 4 0.05300 9.505935 4.668680 5.921216	# H11	hc
158 8 4 0.05300 9.211734 2.402571 6.061403	# H12	hc
159 8 4 0.05300 7.511284 2.592649 5.574319	# H13	hc
160 8 4 0.05300 8.771752 2.370797 4.337221	# H14	hc
161 9 1 -0.10600 14.832642 14.196692 3.143300	# C1	c2
162 9 1 -0.10600 13.764014 13.519171 4.094608	# C2	c2
163 9 1 -0.10600 12.641065 12.786078 3.281121	# C3	c2
164 9 2 -0.15900 12.437398 12.476703 1.774804	# C4	c3
165 9 1 -0.10600 15.437597 13.246594 2.047836	# C5	c2
166 9 2 -0.15900 15.034077 11.784737 2.248971	# C6	c3
167 9 4 0.05300 15.646607 14.583401 3.754675	# H1	hc
168 9 4 0.05300 14.353024 15.035734 2.637846	# H2	hc
169 9 4 0.05300 13.309118 14.283394 4.724705	# H3	hc
170 9 4 0.05300 14.270646 12.790665 4.730401	# H4	hc
171 9 4 0.05300 13.287798 11.961870 3.281333	# H5	hc
172 9 4 0.05300 12.737516 13.756064 2.793521	# H6	hc
173 9 4 0.05300 11.685245 11.896797 1.241836	# H7	hc
174 9 4 0.05300 12.676585 11.476104 2.125612	# H8	hc
175 9 4 0.05300 11.559856 13.096608 1.944379	# H9	hc
176 9 4 0.05300 16.524746 13.317275 2.085419	# H10	hc
177 9 4 0.05300 15.097880 13.576624 1.065715	# H11	hc
178 9 4 0.05300 14.421442 11.462967 1.406508	# H12	hc
179 9 4 0.05300 15.927406 11.166441 2.303507	# H13	hc
180 9 4 0.05300 14.483432 11.684022 3.146631	# H14	hc
181 10 1 -0.10600 18.150154 6.491393 8.994695	# C1	c2
182 10 1 -0.10600 17.724289 7.655504 8.084134	# C2	c2
183 10 1 -0.10600 0.621936 8.616412 7.878885	# C3	c2
184 10 2 -0.15900 1.491188 9.070859 6.706643	# C4	c3
185 10 1 -0.10600 17.684869 6.765973 10.429153	# C5	c2
186 10 2 -0.15900 17.300014 8.259484 10.561655	# C6	c3
187 10 4 0.05300 0.961712 6.390283 8.974154	# H1	hc
188 10 4 0.05300 17.691973 5.565238 8.637652	# H2	hc
189 10 4 0.05300 16.872587 8.176513 8.516046	# H3	hc
190 10 4 0.05300 17.431475 7.246510 7.110113	# H4	hc
191 10 4 0.05300 18.145605 8.969208 7.159345	# H5	hc
192 10 4 0.05300 1.213452 7.706574 7.836921	# H6	hc
193 10 4 0.05300 2.215692 9.882645 6.636950	# H7	hc
194 10 4 0.05300 0.814720 9.925519 6.764221	# H8	hc
195 10 4 0.05300 2.261664 8.693555 7.387733	# H9	hc
196 10 4 0.05300 0.215925 6.526200 11.125077	# H10	hc
197 10 4 0.05300 16.813079 6.151836 10.650628	# H11	hc
198 10 4 0.05300 16.262384 8.354222 10.852738	# H12	hc
199 10 4 0.05300 17.937810 8.722818 11.322753	# H13	hc
200 10 4 0.05300 17.462680 8.764709 9.613382	# H14	hc
201 11 2 -0.15900 6.656981 13.135701 3.051851	# C1	c3
202 11 3 0.05400 5.788397 12.011487 3.661125	# C2	c4o
203 11 6 -0.57000 4.436037 12.018780 4.322409	# O1	oh
204 11 4 0.05300 6.822218 12.939250 1.995782	# H1	hc
205 11 4 0.05300 6.158494 14.067487 3.158359	# H2	hc
206 11 4 0.05300 7.612050 13.181926 3.569304	# H3	hc
207 11 4 0.05300 5.166737 12.276961 2.806111	# H4	hc
208 11 4 0.05300 6.029944 12.566709 4.568521	# H5	hc
209 11 5 0.41000 4.426902 12.718817 5.102580	# H6	ho
210 12 2 -0.15900 2.314357 8.552861 2.669897	# C1	c3
211 12 3 0.05400 1.393167 8.624922 3.904049	# C2	c4o
212 12 6 -0.57000 0.450376 9.691552 4.370200	# O1	oh
213 12 4 0.05300 2.108096 7.640404 2.115587	# H1	hc
214 12 4 0.05300 2.144715 9.405836 2.027824	# H2	hc
215 12 4 0.05300 3.342743 8.535250 2.998495	# H3	hc
216 12 4 0.05300 0.664960 8.652278 3.089456	# H4	hc
217 12 4 0.05300 2.137122 9.343084 4.233482	# H5	hc
218 12 5 0.41000 1.001809 10.553656 4.624136	# H6	ho
219 13 2 -0.15900 11.576408 3.614430 11.237581	# C1	c3
220 13 3 0.05400 12.267107 2.250610 11.036368	# C2	c4o
221 13 6 -0.57000 12.553949 1.451015 9.801529	# O1	oh
222 13 4 0.05300 12.265615 4.305192 11.710345	# H1	hc
223 13 4 0.05300 11.271756 4.013371 10.272916	# H2	hc
224 13 4 0.05300 10.701014 3.487729 11.872647	# H3	hc
225 13 4 0.05300 13.001093 2.900609 10.557915	# H4	hc
226 13 4 0.05300 11.250601 1.981793 10.754104	# H5	hc
227 13 5 0.41000 11.722671 1.486294 9.164004	# H6	ho
228 14 2 -0.15900 7.900312 5.265633 11.337071	# C1	c3
229 14 3 0.05400 8.874072 5.369700 12.517803	# C2	c4o
230 14 6 -0.57000 9.730944 6.504474 12.993875	# O1	oh
231 14 4 0.05300 6.901022 5.035821 11.706862	# H1	hc
232 14 4 0.05300 7.881684 6.212523 10.807194	# H2	hc
233 14 4 0.05300 8.228671 4.475404 10.661665	# H3	hc
234 14 4 0.05300 8.098151 6.057758 12.854637	# H4	hc
235 14 4 0.05300 9.581035 5.424002 11.690368	# H5	hc
236 14 5 0.41000 10.266924 6.902502 12.181502	# H6	ho
237 15 2 -0.15900 5.049090 10.753459 11.936550	# C1	c3
238 15 3 0.05400 3.683285 11.399599 12.211981	# C2	c4o
239 15 6 -0.57000 2.830992 12.316982 11.388970	# O1	oh
240 15 4 0.05300 4.957706 9.673719 11.990278	# H1	hc
241 15 4 0.05300 5.391259 11.036746 10.935772	# H2	hc
242 15 4 0.05300 5.764603 11.089039 12.688720	# H3	hc
243 15 4 0.05300 3.426180 10.737678 11.386455	# H4	hc
244 15 4 0.05300 4.306201 12.294718 12.251039	# H5	hc
245 15 5 0.41000 3.377364 13.180812 11.148176	# H6	ho
246 16 2 -0.15900 10.715684 4.774124 7.990616	# C1	c3
247 16 3 0.05400 12.089515 4.801502 8.686247	# C2	c4o
248 16 6 -0.57000 13.483890 4.678936 8.142927	# O1	oh
249 16 4 0.05300 10.197471 5.715598 8.172074	# H1	hc
250 16 4 0.05300 10.854646 4.636880 6.919777	# H2	hc
251 16 4 0.05300 10.122585 3.950003 8.387993	# H3	hc
252 16 4 0.05300 12.150015 5.734593 8.125402	# H4	hc
253 16 4 0.05300 12.068569 3.761756 8.358974	# H5	hc
254 16 5 0.41000 13.549741 3.824243 7.535546	# H6	ho
255 17 2 -0.15900 14.000694 17.148492 1.301123	# C1	c3
256 17 3 0.05400 13.156967 18.196670 0.548830	# C2	c4o
257 17 6 -0.57000 12.566242 1.235378 0.986114	# O1	oh
258 17 4 0.05300 14.964014 17.032605 0.803555	# H1	hc
259 17 4 0.05300 14.159667 17.477185 2.328748	# H2	hc
260 17 4 0.05300 13.475716 16.193295 1.302663	# H3	hc
261 17 4 0.05300 14.070865 0.499320 0.700574	# H4	hc
262 17 4 0.05300 12.409397 17.832216 1.253706	# H5	hc
263 17 5 0.41000 12.172457 1.137186 1.952547	# H6	ho
264 18 2 -0.15900 8.714587 15.027347 16.211382	# C1	c3
265 18 3 0.05400 9.654442 15.537544 15.100033	# C2	c4o
266 18 6 -0.57000 9.769153 15.177101 13.646850	# O1	oh
267 18 4 0.05300 8.131673 15.860054 16.605270	# H1	hc
268 18 4 0.05300 8.041192 14.274918 15.801824	# H2	hc
269 18 4 0.05300 9.306319 14.586708 17.014184	# H3	hc
270 18 4 0.05300 8.706748 15.934671 14.735485	# H4	hc
271 18 4 0.05300 10.020658 14.514997 15.193603	# H5	hc
272 18 5 0.41000 9.845850 14.134563 13.549707	# H6	ho
273 19 2 -0.15900 9.006794 17.605240 7.421910	# C1	c3
274 19 3 0.05400 10.343595 0.030800 7.096553	# C2	c4o
275 19 6 -0.57000 11.687460 18.243267 7.762967	# O1	oh
276 19 4 0.05300 8.702356 16.990441 6.576568	# H1	hc
277 19 4 0.05300 9.129556 16.975259 8.303544	# H2	hc
278 19 4 0.05300 8.242709 0.086311 7.616164	# H3	hc
279 19 4 0.05300 10.615788 17.270927 6.873176	# H4	hc
280 19 4 0.05300 10.103682 0.525745 8.037457	# H5	hc
281 19 5 0.41000 11.561699 18.243941 8.805028	# H6	ho
282 20 2 -0.15900 2.552973 10.915667 2.723837	# C1	c3
283 20 3 0.05400 1.956824 12.325167 2.684989	# C2	c4o
284 20 6 -0.57000 0.621482 12.848783 3.122161	# O1	oh
285 20 4 0.05300 3.447987 10.910388 3.343890	# H1	hc
286 20 4 0.05300 1.818082 10.233237 3.141873	# H2	hc
287 20 4 0.05300 2.809115 10.602681 1.710146	# H3	hc
288 20 4 0.05300 2.067819 12.208616 3.762519	# H4	hc
289 20 4 0.05300 1.309164 11.819810 1.965353	# H5	hc
290 20 5 0.41000 18.136113 12.199626 2.789597	# H6	ho
291 21 2 -0.15900 14.602359 13.493041 14.792223	# C1	c3
292 21 3 0.05400 14.011257 14.451188 15.843919	# C2	c4o
293 21 6 -0.57000 14.049918 14.429134 17.344202	# O1	oh
294 21 4 0.05300 15.304369 14.035661 14.158315	# H1	hc
295 21 4 0.05300 15.120926 12.680487 15.294928	# H2	hc
296 21 4 0.05300 13.799258 13.085052 14.178953	# H3	hc
297 21 4 0.05300 15.073208 14.640461 16.002576	# H4	hc
298 21 4 0.05300 13.398710 13.569345 16.032027	# H5	hc
299 21 5 0.41000 13.768270 13.477311 17.687862	# H6	ho
300 22 2 -0.15900 7.520456 6.479728 7.179164	# C1	c3
301 22 3 0.05400 6.519657 5.319696 7.223812	# C2	c4o
302 22 6 -0.57000 6.031419 4.422456 6.143999	# O1	oh
303 22 4 0.05300 8.349953 6.270739 7.853761	# H1	hc
304 22 4 0.05300 7.895656 6.595393 6.165804	# H2	hc
305 22 4 0.05300 7.025901 7.393224 7.486481	# H3	hc
306 22 4 0.05300 7.431944 4.764637 7.015869	# H4	hc
307 22 4 0.05300 5.944727 6.032685 6.633588	# H5	hc
308 22 5 0.41000 5.305049 4.927332 5.582081	# H6	ho
309 23 2 -0.15900 7.076366 14.836428 10.757760	# C1	c3
310 23 3 0.05400 5.816137 15.381750 10.084657	# C2	c4o
311 23 6 -0.57000 4.442592 14.814435 9.978683	# O1	oh
312 23 4 0.05300 7.408299 15.532469 11.527113	# H1	hc
313 23 4 0.05300 6.850101 13.876156 11.210992	# H2	hc
314 23 4 0.05300 7.862966 14.713287 10.013007	# H3	hc
315 23 4 0.05300 5.507821 15.437577 11.129615	# H4	hc
316 23 4 0.05300 6.018476 14.532952 9.430925	# H5	hc
317 23 5 0.41000 4.501517 13.795481 9.747775	# H6	ho
318 24 2 -0.15900 18.198783 17.127085 5.587906	# C1	c3
319 24 3 0.05400 0.490806 17.395210 4.178900	# C2	c4o
320 24 6 -0.57000 0.203033 16.752108 2.852597	# O1	oh
321 24 4 0.05300 17.714127 18.028509 5.963815	# H1	hc
322 24 4 0.05300 17.471685 16.316684 5.540450	# H2	hc
323 24 4 0.05300 0.741110 16.846145 6.256794	# H3	hc
324 24 4 0.05300 17.734398 17.726912 4.032217	# H4	hc
325 24 4 0.05300 0.912121 16.406454 4.360107	# H5	hc
326 24 5 0.41000 0.268667 15.707809 2.947583	# H6	ho
327 25 2 -0.15900 8.683598 9.149791 2.029773	# C1	c3
328 25 3 0.05400 9.720122 10.286901 2.039604	# C2	c4o
329 25 6 -0.57000 9.561575 11.770712 2.188710	# O1	oh
330 25 4 0.05300 8.897553 8.455134 2.842104	# H1	hc
331 25 4 0.05300 7.685334 9.565332 2.159949	# H2	hc
332 25 4 0.05300 8.734610 8.624520 1.082431	# H3	hc
333 25 4 0.05300 9.384159 10.333401 3.075259	# H4	hc
334 25 4 0.05300 9.211501 10.510777 1.102289	# H5	hc
335 25 5 0.41000 8.841777 12.115649 1.505152	# H6	ho
336 26 2 -0.15900 4.209237 6.516547 3.351877	# C1	c3
337 26 3 0.05400 5.727126 6.800138 3.395840	# C2	c4o
338 26 6 -0.57000 6.899803 6.009237 2.893039	# O1	oh
339 26 4 0.05300 3.721761 7.302928 2.828522	# H1	hc
340 26 4 0.05300 4.019525 5.588761 2.828528	# H2	hc
341 26 4 0.05300 3.815962 6.459728 4.371746	# H3	hc
342 26 4 0.05300 5.549342 6.843412 2.322338	# H4	hc
343 26 4 0.05300 5.690989 5.976204 4.102134	# H5	hc
344 26 5 0.41000 6.748743 4.990103 3.096830	# H6	ho
345 27 2 -0.15900 1.264555 13.511477 9.375018	# C1	c3
346 27 3 0.05400 1.316057 12.196000 10.168883	# C2	c4o
347 27 6 -0.57000 1.323460 10.765550 9.721900	# O1	oh
348 27 4 0.05300 2.147050 14.094683 9.593636	# H1	hc
349 27 4 0.05300 1.230044 13.293059 8.307470	# H2	hc
350 27 4 0.05300 0.377083 14.075311 9.660523	# H3	hc
351 27 4 0.05300 2.292573 12.159060 9.686791	# H4	hc
352 27 4 0.05300 0.308994 12.127133 9.763502	# H5	hc
353 27 5 0.41000 0.567521 10.618899 9.009286	# H6	ho
354 28 2 -0.15900 10.828864 17.368764 3.598503	# C1	c3
355 28 3 0.05400 10.643812 0.608487 3.366915	# C2	c4o
356 28 6 -0.57000 9.692540 1.374082 2.493325	# O1	oh
357 28 4 0.05300 10.656034 17.137176 4.648665	# H1	hc
358 28 4 0.05300 10.117749 16.818177 2.982393	# H2	hc
359 28 4 0.05300 11.843841 17.080734 3.324486	# H3	hc
360 28 4 0.05300 9.712368 0.394649 3.889164	# H4	hc
361 28 4 0.05300 11.003403 0.307268 2.386300	# H5	hc
362 28 5 0.41000 9.766492 1.026813 1.504681	# H6	ho
363 29 2 -0.15900 11.242206 0.028340 15.482346	# C1	c3
364 29 3 0.05400 11.363148 17.432847 14.212313	# C2	c4o
365 29 6 -0.57000 12.551048 17.039163 13.382118	# O1	oh
366 29 4 0.05300 10.818498 17.702762 16.290546	# H1	hc
367 29 4 0.05300 12.229780 0.386168 15.774312	# H2	hc
368 29 4 0.05300 10.592041 0.880257 15.280961	# H3	hc
369 29 4 0.05300 11.881018 16.789387 14.923480	# H4	hc
370 29 4 0.05300 11.624896 0.134149 13.795746	# H5	hc
371 29 5 0.41000 13.120764 17.892181 13.159043	# H6	ho
372 30 2 -0.15900 11.888380 9.379563 13.049553	# C1	c3
373 30 3 0.05400 13.140872 9.219817 13.939997	# C2	c4o
374 30 6 -0.57000 14.048643 8.048363 14.185093	# O1	oh
375 30 4 0.05300 12.065040 10.160764 12.312421	# H1	hc
376 30 4 0.05300 11.681816 8.439929 12.540818	# H2	hc
377 30 4 0.05300 11.035266 9.650855 13.662391	# H3	hc
378 30 4 0.05300 13.600298 9.130347 12.956402	# H4	hc
379 30 4 0.05300 12.454741 8.566380 14.477748	# H5	hc
380 30 5 0.41000 13.472295 7.187519 14.354120	# H6	ho
381 31 2 -0.15900 14.489806 2.959428 12.080298	# C1	c3
382 31 3 0.05400 14.354328 4.401937 11.564927	# C2	c4o
383 31 6 -0.57000 14.575349 5.721520 12.234280	# O1	oh
384 31 4 0.05300 15.222738 2.435792 11.487209	# H1	hc
385 31 4 0.05300 14.803096 2.972159 13.125060	# H2	hc
386 31 4 0.05300 13.535892 2.452751 11.998891	# H3	hc
387 31 4 0.05300 15.438961 4.361293 11.676955	# H4	hc
388 31 4 0.05300 13.558541 4.382151 12.300085	# H5	hc
389 31 5 0.41000 13.987329 5.771797 13.103138	# H6	ho
390 32 2 -0.15900 2.707533 15.911371 2.143876	# C1	c3
391 32 3 0.05400 4.002192 16.505784 1.553648	# C2	c4o
392 32 6 -0.57000 4.525236 17.910342 1.514452	# O1	oh
393 32 4 0.05300 2.959858 15.171914 2.904112	# H1	hc
394 32 4 0.05300 2.114280 16.707151 2.594129	# H2	hc
395 32 4 0.05300 2.132226 15.434522 1.350785	# H3	hc
396 32 4 0.05300 4.195759 16.662423 2.611023	# H4	hc
397 32 4 0.05300 3.272455 16.954159 0.880156	# H5	hc
398 32 5 0.41000 3.763091 0.285144 1.202270	# H6	ho
399 33 2 -0.15900 4.552139 1.446269 16.435278	# C1	c3
400 33 3 0.05400 4.760210 2.954947 16.198259	# C2	c4o
401 33 6 -0.57000 5.363551 4.023044 17.062950	# O1	oh
402 33 4 0.05300 5.088908 0.882203 15.674723	# H1	hc
403 33 4 0.05300 4.930890 1.176837 17.421550	# H2	hc
404 33 4 0.05300 3.489178 1.212359 16.378139	# H3	hc
405 33 4 0.05300 5.798842 2.625437 16.199343	# H4	hc
406 33 4 0.05300 4.014097 2.994609 16.989977	# H5	hc
407 33 5 0.41000 4.945121 3.972399 18.025426	# H6	ho
408 34 2 -0.15900 16.842746 14.364003 8.435978	# C1	c3
409 34 3 0.05400 15.504528 14.350532 7.662561	# C2	c4o
410 34 6 -0.57000 15.019993 13.478683 6.540136	# O1	oh
411 34 4 0.05300 16.659162 14.177251 9.492078	# H1	hc
412 34 4 0.05300 17.501037 13.589254 8.037446	# H2	hc
413 34 4 0.05300 17.318067 15.335193 8.318879	# H3	hc
414 34 4 0.05300 15.400237 13.413164 8.197812	# H4	hc
415 34 4 0.05300 16.180843 14.661600 6.869601	# H5	hc
416 34 5 0.41000 15.749746 13.444767 5.783693	# H6	ho